ITEM: TIMESTEP
15000000
ITEM: NUMBER OF ATOMS
12000
ITEM: BOX BOUNDS pp pp pp
-2.5038699752178008e+01 2.5038699752178008e+01
-8.3462332507260033e+00 8.3462332507260033e+00
-8.3462332507260033e+00 8.3462332507260033e+00
ITEM: ATOMS id type element x y z vx vy vz 
1 1 A 12.9361 0.395506 3.36212 0.924987 0.291108 1.86618 
2 1 A -14.9948 -7.69192 7.84981 -0.307583 0.325651 1.50764 
3 1 A 12.6946 3.45393 4.36498 0.586562 -1.17139 -0.648052 
4 1 A 9.63799 6.99056 -2.1913 0.16279 -0.976482 -1.35116 
5 1 A -1.70424 -6.44943 7.16711 1.12195 0.190787 0.627733 
6 1 A 1.39107 1.07846 3.67921 -0.235385 0.434057 0.101073 
7 1 A 19.4087 5.81613 -2.22436 -0.122167 1.14153 -0.448477 
8 1 A 21.9013 0.800081 -5.31084 1.29529 -0.10969 0.785747 
9 1 A 3.87225 1.82286 5.10074 -1.23733 0.528608 0.633611 
10 1 A 14.7336 0.971174 8.20976 1.21733 1.95502 0.2721 
11 1 A -7.01614 0.288335 7.88135 -1.32532 1.55706 0.371784 
12 1 A -2.2168 -1.34474 -3.79231 -0.96818 1.6994 -0.0564703 
13 1 A 7.28753 -6.11013 -0.397424 1.23944 0.27402 0.702031 
14 1 A 4.11963 0.683495 -7.33933 0.182222 0.532532 0.403373 
15 1 A -21.6821 -2.33412 3.91523 1.40838 -1.1557 1.63117 
16 1 A -20.4591 6.21309 3.78353 -0.621992 2.20346 -0.806901 
17 1 A -12.5956 -4.25998 -1.23982 -0.738526 -0.347933 0.306199 
18 1 A 11.434 6.31154 -0.14651 -0.768175 -0.346205 1.90604 
19 1 A 11.2492 0.438613 -7.83062 -0.544046 0.531644 -2.57677 
20 1 A -18.7202 2.44093 -4.76222 2.0759 -1.05249 0.665404 
21 1 A 20.9766 -1.79611 8.0682 1.25518 0.964966 0.415357 
22 1 A -19.532 -6.75862 -1.30845 0.293847 -1.09295 -2.07301 
23 1 A -3.6701 -3.26717 -6.3756 -0.273459 0.35988 -0.058659 
24 1 A 9.88871 4.1196 -3.17062 0.698533 -0.591719 -1.83433 
25 1 A -8.85455 -0.87854 0.807057 -2.00792 0.988759 1.06674 
26 1 A 15.5539 1.76692 6.35751 0.0950191 -0.402914 -1.52037 
27 1 A 12.7589 -7.16877 3.9515 0.0864848 -0.127988 1.75172 
28 1 A 15.1705 -6.99319 6.40324 1.35457 0.333764 -0.275057 
29 1 A -22.8634 -4.29597 4.88536 0.314549 -0.392676 -2.04275 
30 1 A 10.8686 -5.27263 -4.89216 -0.763649 -0.0246581 3.81111 
31 1 A 23.1623 -3.39474 -6.04652 1.03945 0.89286 0.644342 
32 1 A -23.0375 2.5634 -5.82303 0.238584 -0.331308 0.668307 
33 1 A -19.4287 -0.725144 -4.80326 -0.771472 -2.91923 1.52869 
34 1 A 22.9125 -5.59431 3.06561 0.618604 -2.60607 0.360393 
35 1 A -24.5787 -8.10501 -5.90755 -2.70396 0.557595 -0.368224 
36 1 A 24.6783 1.842 4.10293 2.08894 -0.48333 1.96335 
37 1 A 10.1825 -5.906 3.44885 0.231658 0.440633 -0.738086 
38 1 A -12.2029 -3.88519 6.98949 -0.100413 1.31721 -0.462201 
39 1 A -4.36058 -0.690888 2.69001 0.353982 1.02817 1.70979 
40 1 A -21.7198 -2.30271 7.36324 0.142972 0.421637 -0.333906 
41 1 A -3.09243 -2.81728 -4.5207 -0.868473 -0.142329 -0.804554 
42 1 A 7.92816 2.69708 -6.52874 0.50677 -1.3233 -0.0894239 
43 1 A -23.0544 -4.27411 1.55415 -0.154723 0.66971 -0.42635 
44 1 A -4.16812 -1.16533 -6.8618 1.13699 -1.065 -0.345379 
45 1 A 5.27547 0.0894736 4.04772 -1.29032 0.3777 0.493841 
46 1 A -4.65259 -4.74624 -3.38667 0.721383 2.24896 0.200236 
47 1 A -2.64904 6.5541 -2.2114 0.984812 -0.479922 0.179527 
48 1 A -19.7403 -8.0594 -5.74854 -0.149217 -0.462457 -0.931525 
49 1 A -3.29486 2.99852 6.76739 0.503469 0.507828 2.34091 
50 1 A -13.5957 5.19249 -1.2449 -0.226223 -0.40647 -0.463155 
51 1 A 1.15018 8.10232 -6.12773 0.149136 0.494371 0.785394 
52 1 A 11.9467 -7.39326 7.06617 0.14999 -0.187676 -1.88978 
53 1 A 3.98857 4.87235 8.16055 0.536415 -1.33276 -0.575905 
54 1 A -7.33103 3.82069 -5.50969 -2.2118 -1.45696 1.6576 
55 1 A 12.1122 -8.27659 1.35254 -0.872327 2.08761 -0.577273 
56 1 A 1.99884 -0.178094 -7.94713 0.332262 -0.850656 0.195868 
57 1 A -11.356 -8.09851 7.42634 -2.04538 0.309332 2.0093 
58 1 A 0.186817 7.91329 5.86006 -1.05393 -0.110924 -1.82336 
59 1 A -13.8234 7.7341 -6.55227 -0.433428 -1.33 -0.615298 
60 1 A -24.5358 -3.68062 -8.09167 1.80358 -2.58506 -0.133345 
61 1 A 5.73213 7.37888 -7.44099 -0.875647 0.493391 1.75395 
62 1 A 15.6911 5.23402 5.8018 0.736714 -0.551486 0.483714 
63 1 A -20.4142 -6.52862 -2.91582 0.572916 0.339604 1.59271 
64 1 A -6.98326 -4.93767 3.02117 0.570599 1.62707 0.74085 
65 1 A 16.8729 6.81946 -4.24602 -0.270425 -1.31328 -0.567487 
66 1 A 6.07883 -3.83588 2.5741 0.607587 0.22589 1.45707 
67 1 A 12.8633 -8.30045 1.73451 -0.838535 0.25248 -0.811047 
68 1 A 13.3277 -3.12949 -3.24706 -1.07172 0.542804 -0.0196496 
69 1 A 16.3745 -2.60632 2.26709 1.79608 -0.124907 0.182084 
70 1 A -12.019 -0.00289759 -4.13913 0.988212 -1.18065 -0.683765 
71 1 A -4.69304 4.30559 -6.99362 -0.37938 -1.76604 1.22953 
72 1 A 17.5198 -5.22177 -8.1264 -0.932092 -1.41661 -0.503203 
73 1 A 17.7723 3.78476 5.13259 -2.18116 -0.652714 -0.147229 
74 1 A 12.2022 5.8439 5.85299 0.676047 0.98911 1.00933 
75 1 A -15.0837 1.85528 -5.209 -1.0484 0.493847 2.55195 
76 1 A -21.9744 4.95405 -2.4411 0.772967 -0.296414 0.732931 
77 1 A 1.57652 -5.52793 6.13304 0.354909 -0.256475 -0.927448 
78 1 A -4.27347 -1.14932 -8.23575 -1.22689 -0.844688 -0.401942 
79 1 A 5.07743 2.14745 -5.74647 -0.664845 -0.62577 0.932103 
80 1 A -11.1388 3.57931 5.96276 -0.16033 1.96581 -0.770404 
81 1 A 16.3391 -6.27809 -5.83338 -0.0701658 -1.74628 0.501723 
82 1 A 4.87089 2.40819 2.59168 -3.25562 2.68939 -1.86815 
83 1 A 11.6791 1.75565 4.95276 0.77626 -0.0274148 -0.74403 
84 1 A 2.87488 -6.19924 4.25047 1.46497 0.33169 -1.14987 
85 1 A 7.06795 -0.924116 -4.08892 0.0690519 -0.103561 1.231 
86 1 A -16.8912 -1.08338 6.70998 -0.957158 1.63211 -0.104448 
87 1 A -7.06429 -4.3227 7.67392 0.4908 -1.79113 1.28926 
88 1 A 7.88684 -6.71379 4.02778 0.0150443 0.668378 0.385277 
89 1 A -19.8007 4.81844 6.49621 -0.00182905 -0.466427 1.02859 
90 1 A 19.287 -5.03944 0.352217 -1.88259 -0.379592 -0.603349 
91 1 A 17.7746 -2.26649 -1.01943 1.23937 3.79524 -0.673792 
92 1 A -3.48191 -5.72398 -3.03421 0.147399 0.899843 1.13045 
93 1 A -9.07054 0.169156 0.763773 -0.798802 -0.451929 -0.358753 
94 1 A -14.342 3.9303 -4.4608 0.054911 0.649371 0.530437 
95 1 A 13.5724 -5.08252 2.09336 -0.878234 1.25467 -1.26289 
96 1 A 13.5289 -2.0882 2.11198 -0.751474 0.232319 -0.359197 
97 1 A -6.04333 6.115 5.23144 0.207591 -0.551398 1.74115 
98 1 A -3.19208 -0.368951 1.20828 0.454866 -0.343199 -1.22409 
99 1 A 8.23088 -3.16519 -7.57167 -0.518186 1.33435 0.370362 
100 1 A 15.0046 -7.02094 6.70653 0.563792 -0.737384 0.533097 
101 1 A -5.30206 -0.994956 -7.21854 -0.282768 -0.73749 -1.94394 
102 1 A -5.38726 1.13417 2.04379 0.0631548 2.66534 1.1693 
103 1 A -8.10712 1.96209 7.48721 0.298579 -0.129253 0.0506915 
104 1 A -15.2478 -5.59368 -0.281179 -0.255828 0.229359 1.91591 
105 1 A 4.20872 -4.25898 0.655096 1.67275 -0.943258 0.153244 
106 1 A -6.34643 -7.46492 -3.01538 2.7459 -0.711252 0.237013 
107 1 A -19.073 -4.85312 -5.03397 -0.0537796 -0.408369 0.399302 
108 1 A -2.8749 3.65455 -7.62865 -0.635993 -0.820668 -0.35206 
109 1 A -7.91653 0.719867 -5.93068 -1.80805 -0.694517 -0.286496 
110 1 A 3.9612 6.37278 -6.25799 -0.0941273 -0.280961 0.492096 
111 1 A 19.6878 -1.46366 -0.507289 -0.572456 -0.381925 0.416277 
112 1 A 2.02971 -6.73038 4.63313 -1.08124 -0.0839084 -0.796885 
113 1 A 4.80247 5.56121 5.52057 0.351983 0.7117 -0.656241 
114 1 A -1.43739 -6.79607 2.59232 1.14796 0.649934 0.827491 
115 1 A 1.77435 4.68161 4.18413 0.855029 -1.09139 1.23177 
116 1 A -8.2264 -7.25809 -3.96115 0.109781 0.260014 2.04816 
117 1 A 14.3138 -7.96554 3.61805 -1.181 -1.56657 -1.17964 
118 1 A -19.6209 5.17382 -4.06648 0.321985 -0.763525 1.68648 
119 1 A 11.7894 -1.09954 -8.15346 0.489983 -0.963489 -0.474868 
120 1 A -16.3834 -6.82671 -3.65709 1.44691 -0.0402413 1.22486 
121 1 A 6.57586 2.1754 -8.27822 -0.421988 -0.546502 0.226133 
122 1 A 22.0243 -7.7776 4.81825 -0.378405 1.78462 -0.714973 
123 1 A -2.82826 -5.09097 -2.21167 -0.473749 1.26899 0.680491 
124 1 A -5.98844 5.21794 4.55386 1.24154 2.1067 0.467036 
125 1 A 10.092 5.89818 4.48515 0.0721462 0.902126 2.5401 
126 1 A 13.6477 -5.3832 5.53907 0.791745 0.649913 -1.45386 
127 1 A 13.4553 3.45715 -5.81669 -1.63761 0.742161 -0.13061 
128 1 A -0.809044 -1.30438 6.21096 -1.66084 -0.681975 -0.263119 
129 1 A -8.37373 -1.87007 5.62018 -1.22228 2.16846 -1.78297 
130 1 A 11.1339 4.9254 -2.2697 0.175612 1.16622 -1.07228 
131 1 A -20.9195 3.27314 -7.43759 0.163677 -0.791649 -0.482221 
132 1 A -16.1983 -2.34323 1.77888 0.0263881 0.316151 0.600205 
133 1 A -0.39054 -6.70643 1.06663 0.789393 -0.381038 1.74954 
134 1 A -23.8698 2.42757 7.43905 1.01401 -1.92977 -0.973398 
135 1 A 0.248268 -3.59872 8.09097 -1.70751 -0.325432 -0.792076 
136 1 A 19.4768 2.00885 7.99151 1.0189 0.950985 -0.169014 
137 1 A 15.3204 -6.86256 3.56488 1.64661 -1.08323 0.59322 
138 1 A 13.8753 6.65364 5.03062 -2.18341 -0.183606 -0.242413 
139 1 A 7.82719 -7.45135 8.28712 1.66035 -0.0892675 1.91258 
140 1 A -12.0405 6.8966 -5.93758 -0.649817 0.879854 2.69585 
141 1 A -20.6036 -2.09598 5.43666 -1.20409 0.472708 0.525351 
142 1 A -16.3316 2.75903 1.24232 1.86831 0.892451 2.11625 
143 1 A -0.451017 2.922 -1.10901 -0.234166 -1.43739 0.192255 
144 1 A 0.764214 -1.36194 -2.06281 0.359562 -0.271337 -0.39623 
145 1 A 15.4399 5.81234 0.0285447 -0.0736633 0.142092 0.216711 
146 1 A 11.8098 -8.14291 -0.302132 -1.34611 -0.639732 -0.990896 
147 1 A 16.4463 -0.550828 -4.99615 0.616558 -0.794016 0.399525 
148 1 A 4.79182 -0.874348 -2.37631 -1.27798 -2.03151 -0.854708 
149 1 A 2.27049 -1.91113 7.10603 -1.62574 1.28914 -0.214309 
150 1 A -17.7435 4.40609 -1.71528 1.95321 -0.197997 -0.745663 
151 1 A -14.7012 -3.12936 -6.7605 -0.368626 0.685512 -1.08119 
152 1 A -11.8147 1.7689 0.878197 -0.735589 -0.534917 1.20898 
153 1 A 10.7923 -5.96869 -4.12245 -0.859935 -0.183363 -0.416204 
154 1 A 2.31876 -3.91948 -4.82627 -0.0709741 0.127846 -1.22595 
155 1 A -0.0525437 -8.27773 6.86021 -0.61043 1.27495 -0.951784 
156 1 A -1.88126 1.47791 -2.69565 0.0705083 0.496469 -0.623167 
157 1 A -10.1672 6.77363 -5.19266 -0.244843 0.95288 0.693511 
158 1 A 2.47962 -6.7491 -5.03332 -0.624449 0.272847 -0.722571 
159 1 A 14.1193 8.06954 -4.83999 0.827771 0.0796376 -0.642711 
160 1 A -7.9227 -5.43363 7.92624 -0.606951 -0.992888 0.0893517 
161 1 A -16.9178 7.82875 -2.6163 -2.87782 1.95902 -1.64057 
162 1 A -21.0954 -4.77423 7.11798 1.85574 0.052828 0.535663 
163 1 A 18.3822 -1.27862 -1.19313 -1.22982 -0.476364 -0.0406203 
164 1 A -6.05469 -8.24875 5.35349 1.90924 -0.630737 0.865644 
165 1 A -11.3133 3.94124 1.39961 -2.33789 0.589568 -0.191437 
166 1 A 6.33599 1.80903 -3.11327 -1.25024 -1.20795 0.647537 
167 1 A 16.1903 -2.501 -2.73685 -1.64498 1.03838 -0.949688 
168 1 A -9.01746 2.54478 -3.79913 1.58215 0.934932 1.93624 
169 1 A -5.42695 2.215 2.30845 1.69108 -1.30204 0.245912 
170 1 A 20.03 -2.93919 7.60835 -0.0373127 -0.505639 0.227713 
171 1 A -16.9813 8.0623 4.23672 1.41655 0.771164 -0.171192 
172 1 A -12.4057 3.10352 6.89329 -1.80816 -1.51136 -0.545253 
173 1 A 17.5725 0.678332 -4.70301 0.210727 -0.959395 -1.83055 
174 1 A 23.1775 -2.6612 7.92548 0.6208 0.494885 -1.41985 
175 1 A -0.785041 -2.18237 -6.91146 1.30472 0.0864194 -0.903516 
176 1 A 20.563 -1.26925 -4.08601 0.22888 -0.428724 -0.420582 
177 1 A -14.5861 6.76683 5.8165 1.25121 -0.0304398 -0.347447 
178 1 A -15.8841 3.57128 2.17557 0.277898 0.454159 0.23393 
179 1 A 6.67623 -2.84499 6.78544 0.562543 -1.48769 0.0793462 
180 1 A -21.6616 -2.78103 1.10958 -1.23526 -2.40717 -0.169277 
181 1 A 22.9198 -3.28857 4.10348 0.321054 0.274688 -1.422 
182 1 A -0.0262213 -7.59911 3.20909 0.918074 1.06818 0.622094 
183 1 A 16.1588 6.35819 2.87646 1.13387 -0.497801 1.05926 
184 1 A 22.1191 5.26357 -5.35583 0.0774706 0.797584 1.0157 
185 1 A 17.9195 -2.85439 4.43622 0.268978 -0.265838 -1.12079 
186 1 A 15.5857 -5.3803 -1.6542 0.129372 2.20619 0.211068 
187 1 A -1.92951 -7.87654 0.719499 -1.31817 -0.29239 0.233816 
188 1 A 14.7189 -1.64403 -8.31577 -0.761464 0.386336 0.290425 
189 1 A -3.11742 5.1888 8.32965 0.173785 1.42394 0.42924 
190 1 A -20.4004 -7.26165 7.43079 -3.29806 1.94079 -0.160643 
191 1 A -4.61068 7.24625 -2.29081 0.797213 0.0658546 1.54196 
192 1 A 8.22922 6.1301 -3.02536 1.93423 0.349377 -1.64433 
193 1 A 4.01082 8.04474 -5.2316 0.538352 -2.17533 0.326174 
194 1 A -23.749 -0.141297 -5.6842 0.749649 -1.02724 0.416728 
195 1 A -15.5836 6.53202 -3.76972 -0.292192 -0.00454308 -0.296555 
196 1 A -24.2835 4.42658 0.441763 -0.955306 1.93875 0.870629 
197 1 A -1.67798 -4.86653 7.46385 -1.12905 0.0485625 -1.78298 
198 1 A 17.1546 4.40262 2.34771 -1.58109 0.980402 1.2467 
199 1 A 13.3723 7.24081 -5.53755 1.2961 -0.558879 0.212477 
200 1 A 1.08095 2.8744 0.410285 0.217609 0.221319 0.217372 
201 1 A -16.9335 -6.65834 6.43749 -0.335017 -1.80648 0.662761 
202 1 A 12.0155 8.04933 -0.584002 -1.05347 0.565654 -0.663328 
203 1 A 22.9863 1.66011 -6.78662 -0.839702 -0.751285 0.0399596 
204 1 A -24.7796 7.92106 8.23678 -0.56266 1.81593 -1.68194 
205 1 A -18.408 -4.43036 1.75615 -0.491448 1.2012 -0.535116 
206 1 A -19.2166 4.32799 -2.05919 0.648871 0.496991 -2.00691 
207 1 A 14.1975 4.90915 -7.87553 -0.447636 0.00154413 0.510522 
208 1 A 2.74723 -3.70091 -5.85803 0.366207 -0.948202 -1.11263 
209 1 A -15.3492 -6.5061 7.06146 -0.66939 -0.0132225 -0.417362 
210 1 A 13.2309 -0.473325 4.20087 1.68435 1.19377 0.35748 
211 1 A -20.9639 -6.63565 -6.65775 -0.869832 -0.00407527 0.862663 
212 1 A 21.6833 6.9074 4.82802 0.371094 -0.0963757 2.4641 
213 1 A -8.65796 -2.76326 7.37374 0.661833 1.00903 -1.53221 
214 1 A -1.50909 -6.18928 -5.41283 -0.247639 -0.840718 0.511835 
215 1 A 4.28125 -4.5312 -1.33289 0.721325 0.846916 -0.123604 
216 1 A 23.2751 -6.54682 0.864662 -0.888069 0.681031 -0.364657 
217 1 A 5.87922 1.87925 -1.92741 -0.400567 -1.82634 1.42276 
218 1 A 1.84757 -8.33524 -0.301431 1.76513 -1.16186 1.32542 
219 1 A -10.9602 -2.19481 -1.31964 -2.21464 0.503876 0.940246 
220 1 A -12.1176 -6.14276 -3.8457 0.338437 1.74495 1.36054 
221 1 A 1.90499 -3.98573 0.0825633 1.33268 -0.0430733 -1.0503 
222 1 A 4.5877 -2.86618 -8.03285 0.641486 0.107085 0.404525 
223 1 A 9.89158 6.23854 -0.248325 -0.326372 1.01825 -1.40742 
224 1 A 11.0514 -6.30461 -1.92188 -2.39378 0.260871 0.967654 
225 1 A 9.71116 -7.21994 3.40039 0.116578 3.10703 0.886796 
226 1 A 13.3911 -2.91 -1.85349 -0.51277 0.202971 0.566336 
227 1 A 3.63363 -1.02655 3.8707 -0.24349 0.764361 -1.34825 
228 1 A 6.15286 -4.35837 7.34367 -0.537355 0.982329 -1.01132 
229 1 A 21.5829 -2.30915 3.09303 -1.58868 -0.401609 -0.291241 
230 1 A -19.9304 2.31936 2.80548 1.18346 -0.48308 0.891778 
231 1 A -14.4789 6.22287 -6.34654 0.103186 -1.18945 0.336228 
232 1 A 16.786 2.30414 -6.91143 -1.47088 0.189637 -0.0257695 
233 1 A -17.9174 -5.92441 4.06854 0.978105 2.1581 1.06758 
234 1 A 16.6066 -6.42495 -3.32337 1.59453 0.886554 -0.0205973 
235 1 A 4.31388 -6.85315 -4.535 0.7611 0.284238 0.522139 
236 1 A 2.42922 -4.62182 -2.9274 0.219809 -1.01582 -0.283734 
237 1 A -23.4768 0.779228 -7.58924 -1.31976 0.174921 -1.08271 
238 1 A 10.4349 2.62583 4.40497 -0.20383 -1.53836 0.200044 
239 1 A 10.9935 -2.69151 0.552301 -1.20308 1.41527 1.25093 
240 1 A -0.400711 -7.93444 -4.46159 -0.019861 0.924167 -0.558088 
241 1 A 6.87752 -4.55732 -4.92616 -0.526817 0.375114 1.5687 
242 1 A 6.01473 2.85158 -6.99097 -0.995592 -0.0905542 2.21112 
243 1 A 22.5747 5.71158 -7.37763 -1.90851 -2.13764 0.772111 
244 1 A 0.118046 -4.00501 5.16084 0.299442 -0.926447 -0.121601 
245 1 A 12.8202 -3.89891 7.52754 -0.248843 1.81359 0.623235 
246 1 A 18.0482 4.28461 5.62805 0.0429764 0.747521 1.55173 
247 1 A -16.866 -6.26248 -0.856649 0.613406 -0.0823514 1.10678 
248 1 A -13.0767 6.50725 -6.15921 -1.05542 -1.7971 3.11324 
249 1 A 4.26097 2.48311 -6.35461 -0.672788 -0.0591897 1.75893 
250 1 A 6.23511 6.19649 -2.28511 -1.00066 0.593268 -0.927747 
251 1 A -8.22833 -3.26369 -1.64021 0.0586076 0.682173 -0.381548 
252 1 A 1.54749 -6.33709 -2.42738 0.040819 -1.71409 -0.678747 
253 1 A 7.35152 -0.43727 -3.5732 2.03324 0.131895 0.938273 
254 1 A -16.9541 5.26264 2.60453 2.09208 -0.139376 1.23956 
255 1 A 8.0008 -7.46509 -6.90987 -0.126436 -0.00763944 0.316563 
256 1 A 22.0633 -5.72061 0.229842 -0.115089 1.17022 -0.273835 
257 1 A 3.01313 0.0945812 3.92873 0.402214 0.775705 0.645948 
258 1 A -10.6211 4.50796 5.34668 -2.58984 -0.0106117 -0.837973 
259 1 A 8.58529 -2.856 -4.54099 0.0832878 0.48377 -2.05192 
260 1 A 13.8474 5.07868 0.471788 0.311216 -2.41347 -0.0732298 
261 1 A -10.9159 0.86917 -2.80162 0.505489 0.393926 -0.938667 
262 1 A 19.5569 1.80969 3.6621 -0.197524 -0.659485 0.688121 
263 1 A -2.0392 -6.70422 8.33127 1.07393 2.18586 0.967998 
264 1 A -0.0416219 6.06932 -0.741071 -0.0333915 1.31709 -0.460484 
265 1 A 1.72964 6.57367 1.51229 1.39307 0.471444 1.06613 
266 1 A 22.2249 -2.50859 -2.55023 1.3452 0.462661 -0.530185 
267 1 A 4.10036 7.74117 -0.791413 0.819581 -0.728779 -1.20381 
268 1 A 20.1409 -3.46605 -4.39934 -0.214983 1.2689 -0.0603707 
269 1 A -14.7237 -1.69968 -7.46596 0.393508 -0.538887 -0.424685 
270 1 A 6.58551 -5.81607 -4.32945 -1.29283 -2.11402 -0.643481 
271 1 A 3.90602 -6.12886 -2.82743 0.205552 -0.427924 0.0762925 
272 1 A -18.4566 -0.383987 1.45039 0.230297 -0.169337 2.10344 
273 1 A -11.0552 5.43257 -4.63488 1.32486 1.73465 0.383051 
274 1 A 7.43974 -2.97915 -0.274178 0.0149666 -0.333951 0.306722 
275 1 A -17.4814 2.26662 1.84988 -0.877334 -0.0185604 0.0313831 
276 1 A -14.9323 -3.45166 -2.53049 -0.263434 -1.61774 2.15109 
277 1 A 23.0906 1.51505 2.98043 1.19013 -0.745164 -0.844067 
278 1 A -16.2646 3.99679 5.97964 -0.660237 0.177903 -0.611232 
279 1 A 22.4495 6.27073 4.8182 0.488718 -0.0128138 -0.507707 
280 1 A 20.675 -0.822403 -3.21762 0.354254 -0.127684 -1.68416 
281 1 A -4.1703 2.57064 5.93706 0.148504 1.70872 1.11265 
282 1 A 11.3513 2.12759 3.62348 -0.978421 -0.413391 0.0999563 
283 1 A -8.22506 6.8984 7.71987 1.32194 -0.637675 0.285493 
284 1 A -9.93821 -6.74424 -7.19877 0.855923 1.59624 -1.18021 
285 1 A -14.0328 -3.2155 0.425562 -0.191606 -0.628894 1.66814 
286 1 A -19.9726 0.226653 -3.65869 0.201503 -0.363294 -1.3598 
287 1 A -13.6783 0.548229 -1.37017 -1.69133 -1.00482 2.11784 
288 1 A 11.8406 -0.134437 -4.47756 -0.967956 -0.429754 1.79452 
289 1 A 8.55605 -3.76723 8.27849 -0.66293 -0.0041418 0.335315 
290 1 A 0.714969 0.919909 5.0449 1.19402 -0.543253 -0.458311 
291 1 A 0.31356 -6.69919 5.80687 -1.1448 1.13423 -0.393758 
292 1 A 17.8838 7.1221 6.17407 0.524977 -0.24593 -0.484444 
293 1 A 1.3103 -1.23587 -0.998236 -0.545258 -0.442421 -1.36492 
294 1 A 21.1467 -3.87267 5.92233 -1.36216 1.00684 1.68397 
295 1 A -14.0622 4.72859 -0.398568 -1.96816 0.861096 -0.110362 
296 1 A 18.4509 -7.40538 1.92495 -1.88405 -0.369577 -1.55655 
297 1 A 3.99406 -0.272587 -6.934 2.19142 0.903636 -0.164158 
298 1 A 23.713 0.945535 5.11195 1.20691 -1.48079 -2.55514 
299 1 A -10.6792 0.194345 -2.879 -0.136793 -1.1962 -1.58294 
300 1 A 12.6622 -1.26222 -2.32522 1.38644 -0.211892 0.812944 
301 1 A 22.1594 6.16909 -8.13098 0.351841 -1.31291 0.0831967 
302 1 A 23.9405 5.53768 6.63582 -0.747794 -1.03558 -0.335341 
303 1 A 16.7197 1.68728 -4.64715 0.673736 -0.50614 -1.39659 
304 1 A -20.5603 5.61055 6.09077 1.24483 -0.340989 -0.0256739 
305 1 A -14.5708 -2.01711 -7.36951 -1.68049 0.941171 1.25616 
306 1 A 4.9085 5.31955 1.53691 -0.00526536 -0.929144 1.19985 
307 1 A 4.30072 -5.87497 -7.80984 2.14532 1.03918 -0.428666 
308 1 A 9.83336 -5.6524 -0.619379 -1.16323 -1.38584 -0.0107597 
309 1 A -22.8399 -6.50192 -5.85122 1.03993 -2.15265 -1.63445 
310 1 A -16.4194 -6.50401 1.46581 -0.43539 -1.12003 -2.42493 
311 1 A 9.90038 -7.77593 -5.82066 2.16557 0.637955 -0.279803 
312 1 A 10.9226 -1.34966 -1.85592 -0.00627491 0.198047 0.503346 
313 1 A 9.10624 -1.74626 6.98204 -0.654579 1.0381 0.547284 
314 1 A -20.1908 -1.10792 4.6128 -1.15354 -0.784545 1.57671 
315 1 A 14.8272 3.06031 -7.29219 0.803447 0.939868 0.162357 
316 1 A -10.9606 7.76116 -7.10577 -2.08939 -1.47106 1.23448 
317 1 A 23.6348 6.8636 0.284769 -0.0395981 1.68941 1.04756 
318 1 A 22.2493 7.99528 5.06854 2.06791 -0.58396 -1.12485 
319 1 A -24.2984 -4.59023 -3.72156 1.92869 0.443985 -1.96743 
320 1 A -1.87173 0.382291 -8.20098 0.876518 -2.01877 -0.268986 
321 1 A -18.4549 -2.1894 -6.11003 -0.744427 -1.08352 1.50639 
322 1 A -23.1993 7.39061 3.37182 1.38344 2.573 1.10513 
323 1 A 22.6893 -6.24823 -0.719085 -0.151891 1.23693 0.594252 
324 1 A 14.9369 -3.42514 5.31046 0.0127027 0.994824 -0.206572 
325 1 A -16.3934 5.58739 -3.10453 -1.41944 -0.854307 0.771576 
326 1 A 23.4602 3.87332 -3.11757 1.26526 -0.681337 -1.01347 
327 1 A 24.3998 0.266634 -4.15022 -2.47898 -0.716368 -0.0471784 
328 1 A 13.7648 -2.53952 2.13525 0.26113 -0.311281 1.67011 
329 1 A -15.0266 1.95763 6.80772 -0.582208 -0.276775 0.102224 
330 1 A -9.03535 4.50272 6.76568 -0.867365 0.0318272 0.309631 
331 1 A 4.78507 4.70126 3.56146 2.97993 1.63722 -0.379958 
332 1 A 17.9326 1.74189 0.791401 -0.0716049 -1.27076 -0.239537 
333 1 A 14.9135 -0.256165 -3.72458 1.20979 0.83971 -0.579469 
334 1 A 17.1026 7.09445 5.44461 1.2043 -0.0430247 -1.0626 
335 1 A 6.29651 -4.96017 -4.92554 -0.450819 -0.973268 -2.58696 
336 1 A -23.7943 -0.268078 -3.45955 -0.335385 -0.478406 1.4247 
337 1 A -15.6522 3.04567 -2.16221 -1.38861 -0.151101 -0.998794 
338 1 A 22.5723 6.56806 -5.86353 -0.328749 -0.241925 -0.258884 
339 1 A -22.0333 -6.62688 1.61131 -1.24982 -0.852945 -0.311961 
340 1 A 7.96878 6.22136 -5.78314 0.302849 0.478375 -0.988844 
341 1 A 18.1603 1.68793 0.786417 0.946522 0.780741 -0.876165 
342 1 A 3.13106 -1.66222 8.18918 -1.83518 -0.959827 -2.05868 
343 1 A -24.3017 4.90483 -6.35078 -1.52302 0.598281 -1.5012 
344 1 A -14.1477 0.784253 0.815158 0.548173 -0.789564 2.68623 
345 1 A 18.5424 -5.96344 0.654309 0.835252 1.08242 -1.39746 
346 1 A 17.2139 8.25773 -1.49636 0.680274 -0.597645 1.53934 
347 1 A -6.98038 -5.34499 -8.23798 0.83557 0.307975 0.556195 
348 1 A -23.998 -1.98088 -1.51973 1.25744 2.02514 -1.32711 
349 1 A -12.5656 -5.68293 -2.21966 -0.468708 -0.654253 -1.42167 
350 1 A 24.5309 -6.30687 -6.7503 0.91382 -0.282616 -2.26782 
351 1 A 5.13498 -5.47848 2.0059 1.47978 -0.00892318 -1.63375 
352 1 A -9.24953 -5.88092 4.43549 -0.959864 0.796921 0.108049 
353 1 A -22.9674 4.40014 0.609519 0.186065 -0.973853 -0.0995631 
354 1 A 9.0119 5.6165 4.52901 1.74977 -1.40032 -2.55867 
355 1 A 12.3975 7.44722 7.78257 -1.48417 -0.284178 0.186165 
356 1 A 7.04092 -6.40751 2.41592 -0.0718157 -1.06347 2.38756 
357 1 A 9.45946 -6.36902 2.09895 1.37201 -1.09743 1.40259 
358 1 A 16.8159 -5.39039 5.53463 -0.109198 0.181335 1.6486 
359 1 A 2.89505 -0.223728 -5.0741 -0.640616 0.310129 0.419321 
360 1 A 11.31 2.12225 6.92601 1.29927 -1.17743 -3.11434 
361 1 A 20.653 1.68256 6.13863 -0.529049 0.569342 -1.1512 
362 1 A 11.7515 -3.71162 7.43284 0.779371 1.02343 0.315933 
363 1 A -9.14546 0.0564026 7.27427 1.28997 0.522759 -1.14775 
364 1 A -11.6096 -4.38357 -0.832951 -0.123784 -1.41792 -1.0309 
365 1 A -10.5303 -7.29348 5.72913 -0.527352 1.41614 1.49122 
366 1 A 0.822122 -3.67403 2.98424 -0.790137 -0.734845 1.18923 
367 1 A 21.8947 3.09997 3.53037 0.150152 -0.294743 0.973455 
368 1 A -0.230789 2.70507 -3.66556 1.22088 -0.575556 -0.146518 
369 1 A -17.0556 0.225718 -1.45495 0.549 -0.408734 -0.122021 
370 1 A -16.687 6.17234 5.56932 1.00667 0.45911 -1.19055 
371 1 A -11.4868 -5.72741 6.43227 -2.52411 -0.635517 0.926187 
372 1 A 10.2228 -3.42668 -7.31339 0.31457 1.98808 1.10327 
373 1 A -17.1772 1.47091 -1.85368 -2.16072 -0.725448 -0.722453 
374 1 A -4.66782 -0.219471 -7.26927 0.654978 -0.111733 0.324986 
375 1 A 21.4223 -7.12717 0.761076 -1.17099 -1.56466 -2.12405 
376 1 A 16.5222 -5.72937 -1.84687 -0.0434819 0.546948 -0.980592 
377 1 A -7.65685 -5.16808 -0.820397 0.253565 -1.01334 -1.47365 
378 1 A -4.27461 -4.91994 -7.51881 -0.734358 1.68303 -0.533916 
379 1 A -8.24775 5.22183 4.09916 -0.0494497 1.12699 2.50787 
380 1 A 3.17779 -5.17088 -0.175427 0.509948 0.564735 -0.82028 
381 1 A 1.95071 -2.50822 2.36373 -1.59937 -0.201077 0.239582 
382 1 A 8.38025 6.34552 0.0791187 0.694103 1.32139 -1.93529 
383 1 A 18.799 -2.37994 2.81251 -0.740556 -1.39885 -0.00520591 
384 1 A 6.37244 -2.19221 -6.37914 0.117376 -0.494441 -0.827728 
385 1 A -10.4359 -4.57612 3.53343 -1.11672 -0.707807 -0.539529 
386 1 A -13.5254 -0.465849 -6.93695 0.17911 0.617788 -1.66368 
387 1 A 17.8972 -1.93055 6.90465 0.362218 1.31792 1.09534 
388 1 A 3.4645 -3.74563 1.34793 1.61527 -0.267921 0.55389 
389 1 A -20.3566 -4.03801 1.14306 -1.26804 -0.90025 0.820777 
390 1 A 15.3329 -8.15071 -8.21142 -0.778714 0.239765 0.0734401 
391 1 A 20.5985 0.875889 7.66306 -1.54814 -0.752453 0.209889 
392 1 A -11.0065 -0.731643 -1.46507 0.585478 1.55571 -1.1909 
393 1 A -9.08049 -6.65304 -6.60955 -0.327314 -0.41882 -0.370165 
394 1 A 0.401467 -7.60837 -3.10804 0.363495 -0.927246 0.773928 
395 1 A -3.40899 -7.22292 -0.63874 -1.87427 -1.00932 0.757176 
396 1 A -2.9834 3.76632 -1.28132 0.981508 0.0206813 1.09091 
397 1 A -0.960424 -5.18279 -0.652796 1.13288 -2.25553 -1.17804 
398 1 A -5.33087 -6.845 2.00203 -0.355238 1.06001 -0.959845 
399 1 A -14.6667 1.14436 -0.575435 -2.80134 0.775559 1.6311 
400 1 A -4.22035 -0.932052 7.19798 -0.780921 0.76966 -0.51587 
401 1 A 15.5779 -4.31572 0.00917881 -0.917828 0.0031764 -0.225157 
402 1 A 14.5218 -4.85598 8.23947 -1.73356 -0.0185761 -0.186686 
403 1 A -11.0084 8.14981 -0.402854 -1.15931 -0.596193 2.04682 
404 1 A 21.083 2.24073 6.1059 1.09461 0.541958 -0.891529 
405 1 A 21.8301 0.088701 -0.607546 0.206361 2.11078 -0.211104 
406 1 A 23.3114 2.63829 -2.04469 -1.67142 1.00988 0.751594 
407 1 A 9.29903 7.38736 6.76384 -2.62 0.242713 1.37944 
408 1 A -7.07638 -2.1161 -7.43792 -0.855165 -1.58867 -0.248593 
409 1 A 21.1488 2.9117 3.86905 0.410747 -1.63644 -0.993793 
410 1 A -3.25462 3.94631 -6.26148 1.39238 -0.957924 0.796666 
411 1 A -14.4799 2.41924 -1.47009 -0.349482 1.34359 -2.00853 
412 1 A -14.6746 2.18731 -5.76054 0.554138 1.79336 2.46393 
413 1 A 4.1875 -4.83551 5.80301 0.985359 -0.123724 -2.1753 
414 1 A 9.46138 -6.18508 -2.52826 -1.17749 1.8108 -1.52899 
415 1 A 9.73493 -4.32124 -5.13752 1.05289 -1.04035 -0.697509 
416 1 A 21.5824 -0.409032 5.4161 -0.752072 -1.28165 -0.657462 
417 1 A -9.30931 -0.132408 4.83418 -0.512761 0.343724 0.847791 
418 1 A -13.4962 -1.39948 -8.26681 -0.492021 1.60343 1.21058 
419 1 A 8.78347 7.44511 7.80359 0.990104 2.04722 1.28318 
420 1 A -6.11291 7.52269 -4.38144 2.21716 0.721648 -0.0738455 
421 1 A -6.02848 1.06498 3.53528 -0.399977 0.653404 0.785056 
422 1 A 2.6753 1.17602 0.596612 -0.221171 -1.68955 -1.39149 
423 1 A -12.305 -5.68579 5.08991 -0.816187 2.41742 0.936167 
424 1 A 1.3202 -2.5431 -5.46857 0.441455 -0.0811138 -1.02408 
425 1 A -4.39313 7.62784 4.33925 0.549704 0.340302 1.45263 
426 1 A -3.91084 0.576205 -7.35306 -0.0933063 1.32412 0.0956359 
427 1 A 2.66248 6.05646 1.95765 0.768413 -0.802576 -0.796446 
428 1 A -0.277479 5.42834 -4.00791 -1.65944 -0.30379 -1.16457 
429 1 A 15.5965 0.801559 2.21721 -1.74569 -0.186115 -1.2138 
430 1 A -6.18035 4.24581 3.06991 -0.492871 0.274277 -0.969656 
431 1 A 13.5068 -1.34862 1.74041 -0.878133 0.615476 -0.154585 
432 1 A 15.4262 5.66108 0.188969 1.02268 1.39646 -0.813758 
433 1 A 7.50212 -1.84653 5.41534 0.765011 1.41597 1.14252 
434 1 A 19.8293 6.46981 0.769412 0.263184 0.179578 0.0820006 
435 1 A -10.2799 1.80369 -0.284042 2.7402 -1.87594 0.147032 
436 1 A -15.7907 -4.98169 -1.44356 1.03188 1.87965 -0.0906442 
437 1 A 21.5153 -4.32491 -4.46386 -0.272161 -2.04089 -0.452765 
438 1 A -7.19877 6.00073 2.047 -1.74014 -1.21053 0.281738 
439 1 A -13.1386 8.01186 4.18004 0.328849 -0.291015 0.635529 
440 1 A 2.1308 -5.1402 -3.83366 -1.39785 1.1486 -0.0296099 
441 1 A -5.66217 1.06431 -0.625232 0.0209095 0.437864 0.670777 
442 1 A -22.3625 2.66932 -7.29142 -0.533259 -1.24714 1.13049 
443 1 A 11.7318 -2.34961 4.54735 -1.72488 -1.07878 -0.450628 
444 1 A -17.5558 -0.736256 -4.17036 -0.178803 0.398609 -0.101371 
445 1 A -3.79529 1.72607 2.97437 -1.25939 0.297334 -0.769848 
446 1 A -23.7737 2.88057 5.68203 0.903549 0.454348 -1.93154 
447 1 A -5.25815 -4.55881 1.41453 0.339211 1.45663 -1.15436 
448 1 A -8.91961 5.48197 -5.33851 -0.372281 0.506004 0.514212 
449 1 A 11.0166 4.40045 -4.10689 -0.0639427 1.61246 0.0878917 
450 1 A 11.6713 4.43103 -7.13548 -0.39446 -0.976491 0.108791 
451 1 A 4.58026 7.1722 3.3689 -0.0769374 0.2783 -1.2947 
452 1 A 5.62156 -6.9122 0.371875 1.62043 0.137391 -0.768581 
453 1 A -21.5281 -2.99492 -6.71996 -0.0260647 0.747972 -0.354507 
454 1 A 13.4353 1.64879 7.01147 1.22669 0.553516 1.37922 
455 1 A -17.4843 5.34445 1.96326 1.00992 0.897347 -0.441156 
456 1 A -16.8376 -1.22418 0.367389 -2.016 -0.150017 -1.62653 
457 1 A 0.343482 4.38218 2.56401 -0.949469 -1.48024 0.483454 
458 1 A -7.9423 3.7649 5.17623 1.04144 1.0921 2.59711 
459 1 A 20.0626 -3.59935 -5.32523 0.23798 -1.01108 0.574894 
460 1 A 21.1079 -4.45557 -7.22675 1.83805 1.11107 -1.5784 
461 1 A -1.40475 -0.529656 -0.721331 0.291036 0.0060434 -0.593701 
462 1 A -6.4237 6.79693 -2.74096 -0.00445119 0.531189 -0.496706 
463 1 A -11.941 0.782966 1.02537 0.150604 -0.681677 0.354344 
464 1 A -4.10748 3.9812 -0.932548 0.336542 1.62603 -0.808116 
465 1 A -24.7755 -5.86542 1.7016 2.11284 0.227268 -1.7619 
466 1 A -9.2323 -3.40401 5.3086 0.00121626 -0.68639 -0.870728 
467 1 A 14.6081 -4.78587 4.56982 -1.3924 -2.27872 1.81926 
468 1 A 11.9851 2.35191 4.94676 0.0602824 0.80235 0.641542 
469 1 A 1.79704 8.29122 7.83388 0.202921 -2.89662 1.55992 
470 1 A 12.0897 -1.38854 -3.43456 1.58794 -1.74834 -0.567686 
471 1 A 7.02156 -2.56725 -4.63709 1.28646 1.12141 -0.257452 
472 1 A 15.6157 -8.16254 -2.15095 -1.74148 -1.47261 1.09978 
473 1 A -17.4259 -8.25863 1.1118 0.476233 1.54066 0.697789 
474 1 A -16.6894 -8.24223 3.75317 0.174753 1.10435 2.18644 
475 1 A -21.7153 5.97471 5.21991 -0.502139 0.58868 -0.605254 
476 1 A -10.3445 -8.06949 7.11634 1.31028 1.4838 -1.36499 
477 1 A -12.088 -7.26287 3.61585 -1.74774 0.835081 0.926027 
478 1 A 19.9003 1.28517 -6.27702 -0.308525 1.09798 -0.821782 
479 1 A 22.8448 -5.78482 3.76751 -2.1416 1.09575 0.519884 
480 1 A -22.4139 7.14818 2.47783 0.289753 -1.01349 -0.13758 
481 1 A 4.75781 1.03437 -5.32343 0.122975 -0.449277 -1.27286 
482 1 A 22.6395 4.16612 2.75378 1.19939 -0.855635 -2.67923 
483 1 A 10.4417 -4.72359 3.10258 -2.33186 1.1598 -0.416516 